 &FCI NORB= 10,NELEC= 14,MS2= 0,
  ORBSYM=1,1,1,6,7,5,5,5,3,2,
  ISYM=1,
 /
 -2.7579685141631575E+01   1   1   0   0
 -4.6447137996830334E-01   2   1   0   0
 -9.5762281442523900E+00   2   2   0   0
 -2.6400007986910135E-01   3   1   0   0
  7.1180008721068866E-01   3   2   0   0
 -7.7913890092383227E+00   3   3   0   0
 -7.8490579307026902E+00   4   4   0   0
 -7.8490579307026902E+00   5   5   0   0
 -2.7578916136183931E+01   6   6   0   0
 -4.9884112022281513E-01   7   6   0   0
 -7.6861911079843033E+00   7   7   0   0
 -2.3197940588321853E-01   8   6   0   0
 -4.1858236625484402E-01   8   7   0   0
 -8.3169940030382215E+00   8   8   0   0
 -8.0794614789261487E+00   9   9   0   0
 -8.0794614789261487E+00  10  10   0   0
  2.3786407766990290E+01   0   0   0   0