 &FCI NORB=  10,NELEC=14,MS2=0,
  ORBSYM=1,1,1,5,5,5,2,6,3,7,
  ISYM=1,
  IUHF=1,
 &END
  2.3068656644729977   1   1   1   1
 -0.1914404665510853   2   1   1   1
  0.0309482307723976   2   1   2   1
  0.7868840775319685   2   2   1   1
  0.0020222979707514   2   2   2   1
  0.7472181498738082   2   2   2   2
  0.0835840775122257   3   1   1   1
 -0.0065652065115591   3   1   2   1
  0.0254970389593295   3   1   2   2
  0.0142698628303379   3   1   3   1
  0.0655012164925525   3   2   1   1
  0.0072351540848788   3   2   2   1
  0.1088646552342296   3   2   2   2
  0.0123610459239877   3   2   3   1
  0.0516460777743988   3   2   3   2
  0.6854056843708085   3   3   1   1
 -0.0089761290437833   3   3   2   1
  0.5424367786395865   3   3   2   2
 -0.0027000280917537   3   3   3   1
  0.0161748568492945   3   3   3   2
  0.5849179963842751   3   3   3   3
  1.8249339818910668   4   1   4   1
 -0.1983666215168985   4   2   4   1
  0.0306870405540170   4   2   4   2
  0.0685565934385078   4   3   4   1
 -0.0070242229993568   4   3   4   2
  0.0133156519911203   4   3   4   3
  2.3063511607999159   4   4   1   1
 -0.1913035532666705   4   4   2   1
  0.7869699868859616   4   4   2   2
  0.0836430878999770   4   4   3   1
  0.0655591199960295   4   4   3   2
  0.6853423268685955   4   4   3   3
  2.3058381064808935   4   4   4   4
 -0.1846139501477445   5   1   4   1
  0.0260148600652231   5   1   4   2
 -0.0147837545188701   5   1   4   3
  0.0287155847936834   5   1   5   1
  0.1721198435502427   5   2   4   1
 -0.0083001343132288   5   2   4   2
 -0.0007778777822039   5   2   4   3
 -0.0048287136182030   5   2   5   1
  0.0564762675219172   5   2   5   2
 -0.2521981418467122   5   3   4   1
  0.0138780026777291   5   3   4   2
  0.0148721316573113   5   3   4   3
 -0.0023235595668050   5   3   5   1
 -0.0930856358997453   5   3   5   2
  0.2235584887277753   5   3   5   3
 -0.1915180729285180   5   4   1   1
  0.0258190186011604   5   4   2   1
 -0.0182719141877794   5   4   2   2
 -0.0152157617158090   5   4   3   1
 -0.0047751805190279   5   4   3   2
 -0.0037242649426823   5   4   3   3
 -0.1914693444201649   5   4   4   4
  0.0289114824063449   5   4   5   4
  0.6671458921758874   5   5   1   1
 -0.0125636523575573   5   5   2   1
  0.5119501394990428   5   5   2   2
 -0.0042069788861387   5   5   3   1
 -0.0011351947328921   5   5   3   2
  0.5570968878435927   5   5   3   3
  0.6670820516007504   5   5   4   4
 -0.0049101511348295   5   5   5   4
  0.5453708953174008   5   5   5   5
 -0.1496126040025248   6   1   4   1
  0.0275389835171370   6   1   4   2
  0.0050309140241109   6   1   4   3
  0.0148212030263728   6   1   5   1
 -0.0081345324202467   6   1   5   2
  0.0262451133359767   6   1   5   3
  0.0359352673318381   6   1   6   1
  0.2263328770212953   6   2   4   1
 -0.0049951236176231   6   2   4   2
  0.0109234140580538   6   2   4   3
 -0.0114483135644551   6   2   5   1
  0.0592044151602028   6   2   5   2
 -0.0568077385108556   6   2   5   3
  0.0059622326721718   6   2   6   1
  0.1066529234636785   6   2   6   2
  0.1933359538290267   6   3   4   1
 -0.0068262963292144   6   3   4   2
 -0.0034049139948352   6   3   4   3
 -0.0017083006077306   6   3   5   1
  0.0548145781850199   6   3   5   2
 -0.1243795456326329   6   3   5   3
 -0.0095429778699843   6   3   6   1
  0.0588860809226624   6   3   6   2
  0.0918150518302845   6   3   6   3
 -0.1312665815403320   6   4   1   1
  0.0280121733529547   6   4   2   1
  0.0221338766071919   6   4   2   2
  0.0061211971348271   6   4   3   1
  0.0167871524440029   6   4   3   2
 -0.0121185369924793   6   4   3   3
 -0.1310504912833967   6   4   4   4
  0.0142909409352024   6   4   5   4
 -0.0162235194866521   6   4   5   5
  0.0370448424033494   6   4   6   4
  0.0491703695891992   6   5   1   1
  0.0028764193322561   6   5   2   1
  0.0735318764294026   6   5   2   2
  0.0122298230228791   6   5   3   1
  0.0297220626171544   6   5   3   2
 -0.0274513191644330   6   5   3   3
  0.0492469367088523   6   5   4   4
 -0.0074621473222258   6   5   5   4
 -0.0198144149968347   6   5   5   5
  0.0137321928839929   6   5   6   4
  0.0479110756044477   6   5   6   5
  0.8958031734993898   6   6   1   1
 -0.0055163682819430   6   6   2   1
  0.7241338004178490   6   6   2   2
  0.0228800525277460   6   6   3   1
  0.0875399859593670   6   6   3   2
  0.5940888592523353   6   6   3   3
  0.8958777130555655   6   6   4   4
 -0.0209471183478103   6   6   5   4
  0.5594683590414864   6   6   5   5
  0.0135347809326312   6   6   6   4
  0.0456483257630746   6   6   6   5
  0.7600248801811409   6   6   6   6
  0.0097709748816308   7   1   7   1
  0.0166207300999337   7   2   7   1
  0.1049701474417480   7   2   7   2
 -0.0048610440258335   7   3   7   1
 -0.0138451157984922   7   3   7   2
  0.0280605436660557   7   3   7   3
  0.0092697615490941   7   4   7   4
  0.0112814228115656   7   5   7   4
  0.0508736779980399   7   5   7   5
  0.0085936714747269   7   6   7   4
  0.0238357275664914   7   6   7   5
  0.0353344579260224   7   6   7   6
  0.6879790991812140   7   7   1   1
 -0.0015138854767778   7   7   2   1
  0.6171757554288596   7   7   2   2
  0.0089481409837993   7   7   3   1
  0.0469597596941386   7   7   3   2
  0.5177651312678414   7   7   3   3
  0.6880230406562680   7   7   4   4
 -0.0077286781310518   7   7   5   4
  0.5100096682701755   7   7   5   5
  0.0064394622348470   7   7   6   4
  0.0416720353129108   7   7   6   5
  0.6199586921409804   7   7   6   6
  0.5880333086470342   7   7   7   7
  0.0113100667525716   8   1   7   4
  0.0134691761900216   8   1   7   5
  0.0098885596893278   8   1   7   6
  0.0138173617679769   8   1   8   1
  0.0114368254292174   8   2   7   4
  0.0429261294264493   8   2   7   5
  0.0340154290312898   8   2   7   6
  0.0134411058458944   8   2   8   1
  0.0442491710270605   8   2   8   2
 -0.0070266882420814   8   3   7   4
 -0.0391314957677392   8   3   7   5
 -0.0044157670063581   8   3   7   6
 -0.0086087414660138   8   3   8   1
 -0.0249968565537618   8   3   8   2
  0.0381695745599210   8   3   8   3
  0.0118877268275408   8   4   7   1
  0.0188479082540023   8   4   7   2
 -0.0062182045207144   8   4   7   3
  0.0144985042910350   8   4   8   4
  0.0156085856241152   8   5   7   1
  0.0741012791980324   8   5   7   2
 -0.0374298855201660   8   5   7   3
  0.0185326055702317   8   5   8   4
  0.0823649309597378   8   5   8   5
  0.0111174725984090   8   6   7   1
  0.0616291882047870   8   6   7   2
  0.0004407744905417   8   6   7   3
  0.0126087805175568   8   6   8   4
  0.0360523940242460   8   6   8   5
  0.0471636102571069   8   6   8   6
  0.2753528636477678   8   7   4   1
 -0.0088403176549447   8   7   4   2
 -0.0037820846389843   8   7   4   3
 -0.0027461984079547   8   7   5   1
  0.0966923497285818   8   7   5   2
 -0.1574223353958174   8   7   5   3
 -0.0099113089704007   8   7   6   1
  0.1021480422860114   8   7   6   2
  0.0921326983713844   8   7   6   3
  0.1876617882079626   8   7   8   7
  0.7276833321893811   8   8   1   1
 -0.0059488162132536   8   8   2   1
  0.5960361351391275   8   8   2   2
  0.0053577665160026   8   8   3   1
  0.0292283092012472   8   8   3   2
  0.5405366748621898   8   8   3   3
  0.7277125780398674   8   8   4   4
 -0.0077432527509285   8   8   5   4
  0.5358793067917288   8   8   5   5
 -0.0003361779761690   8   8   6   4
  0.0284813814533238   8   8   6   5
  0.6213509929390287   8   8   6   6
  0.5870791941704944   8   8   7   7
  0.6047495644207154   8   8   8   8
  0.0097709748816308   9   1   9   1
  0.0166207300999337   9   2   9   1
  0.1049701474417480   9   2   9   2
 -0.0048610440258335   9   3   9   1
 -0.0138451157984922   9   3   9   2
  0.0280605436660557   9   3   9   3
  0.0092697615490941   9   4   9   4
  0.0112814228115656   9   5   9   4
  0.0508736779980399   9   5   9   5
  0.0085936714747269   9   6   9   4
  0.0238357275664914   9   6   9   5
  0.0353344579260224   9   6   9   6
  0.0239905549573628   9   7   9   7
  0.0189799387287248   9   8   9   8
  0.6879790991812140   9   9   1   1
 -0.0015138854767778   9   9   2   1
  0.6171757554288596   9   9   2   2
  0.0089481409837993   9   9   3   1
  0.0469597596941386   9   9   3   2
  0.5177651312678414   9   9   3   3
  0.6880230406562680   9   9   4   4
 -0.0077286781310518   9   9   5   4
  0.5100096682701755   9   9   5   5
  0.0064394622348470   9   9   6   4
  0.0416720353129108   9   9   6   5
  0.6199586921409804   9   9   6   6
  0.5400521987323086   9   9   7   7
  0.5413239563182571   9   9   8   8
  0.5880333086470342   9   9   9   9
  0.0113100667525716  10   1   9   4
  0.0134691761900216  10   1   9   5
  0.0098885596893278  10   1   9   6
  0.0138173617679769  10   1  10   1
  0.0114368254292174  10   2   9   4
  0.0429261294264493  10   2   9   5
  0.0340154290312898  10   2   9   6
  0.0134411058458944  10   2  10   1
  0.0442491710270605  10   2  10   2
 -0.0070266882420814  10   3   9   4
 -0.0391314957677392  10   3   9   5
 -0.0044157670063581  10   3   9   6
 -0.0086087414660138  10   3  10   1
 -0.0249968565537618  10   3  10   2
  0.0381695745599210  10   3  10   3
  0.0118877268275408  10   4   9   1
  0.0188479082540023  10   4   9   2
 -0.0062182045207144  10   4   9   3
  0.0144985042910350  10   4  10   4
  0.0156085856241152  10   5   9   1
  0.0741012791980324  10   5   9   2
 -0.0374298855201660  10   5   9   3
  0.0185326055702317  10   5  10   4
  0.0823649309597378  10   5  10   5
  0.0111174725984090  10   6   9   1
  0.0616291882047870  10   6   9   2
  0.0004407744905417  10   6   9   3
  0.0126087805175568  10   6  10   4
  0.0360523940242460  10   6  10   5
  0.0471636102571069  10   6  10   6
  0.0189799387287248  10   7   9   8
  0.0189799387287248  10   7  10   7
  0.0228776189261184  10   8   9   7
  0.0250683630660331  10   8  10   8
  0.2753528636477678  10   9   4   1
 -0.0088403176549447  10   9   4   2
 -0.0037820846389843  10   9   4   3
 -0.0027461984079547  10   9   5   1
  0.0966923497285818  10   9   5   2
 -0.1574223353958174  10   9   5   3
 -0.0099113089704007  10   9   6   1
  0.1021480422860114  10   9   6   2
  0.0921326983713844  10   9   6   3
  0.1497019107505128  10   9   8   7
  0.1876617882079626  10   9  10   9
  0.7276833321893811  10  10   1   1
 -0.0059488162132536  10  10   2   1
  0.5960361351391275  10  10   2   2
  0.0053577665160026  10  10   3   1
  0.0292283092012472  10  10   3   2
  0.5405366748621898  10  10   3   3
  0.7277125780398674  10  10   4   4
 -0.0077432527509285  10  10   5   4
  0.5358793067917288  10  10   5   5
 -0.0003361779761690  10  10   6   4
  0.0284813814533238  10  10   6   5
  0.6213509929390287  10  10   6   6
  0.5413239563182572  10  10   7   7
  0.5546128382886489  10  10   8   8
  0.5870791941704944  10  10   9   9
  0.6047495644207154  10  10  10  10
  0.0000000000000000   0   0   0   0
  2.3068656644407777   1   1   1   1
 -0.1914404666458027   2   1   1   1
  0.0309482307992936   2   1   2   1
  0.7868840775625638   2   2   1   1
  0.0020222979706930   2   2   2   1
  0.7472181498779641   2   2   2   2
  0.0835840774244241   3   1   1   1
 -0.0065652065037560   3   1   2   1
  0.0254970389534968   3   1   2   2
  0.0142698628220330   3   1   3   1
  0.0655012164994548   3   2   1   1
  0.0072351540894868   3   2   2   1
  0.1088646552303094   3   2   2   2
  0.0123610459236271   3   2   3   1
  0.0516460777698742   3   2   3   2
  0.6854056843580585   3   3   1   1
 -0.0089761290519272   3   3   2   1
  0.5424367786358079   3   3   2   2
 -0.0027000280983956   3   3   3   1
  0.0161748568478970   3   3   3   2
  0.5849179963842092   3   3   3   3
  1.8249339818009778   4   1   4   1
 -0.1983666215789032   4   2   4   1
  0.0306870405782879   4   2   4   2
  0.0685565933751240   4   3   4   1
 -0.0070242229914805   4   3   4   2
  0.0133156519820612   4   3   4   3
  2.3063511607205931   4   4   1   1
 -0.1913035533516242   4   4   2   1
  0.7869699869227397   4   4   2   2
  0.0836430878137959   4   4   3   1
  0.0655591200078826   4   4   3   2
  0.6853423268518617   4   4   3   3
  2.3058381063546127   4   4   4   4
 -0.1846139503315743   5   1   4   1
  0.0260148601076604   5   1   4   2
 -0.0147837545032257   5   1   4   3
  0.0287155848295487   5   1   5   1
  0.1721198438073872   5   2   4   1
 -0.0083001343184173   5   2   4   2
 -0.0007778777678655   5   2   4   3
 -0.0048287136455711   5   2   5   1
  0.0564762676502420   5   2   5   2
 -0.2521981416194837   5   3   4   1
  0.0138780026723374   5   3   4   2
  0.0148721316437850   5   3   4   3
 -0.0023235595316307   5   3   5   1
 -0.0930856358998346   5   3   5   2
  0.2235584884576765   5   3   5   3
 -0.1915180730787881   5   4   1   1
  0.0258190186458365   5   4   2   1
 -0.0182719141539919   5   4   2   2
 -0.0152157616970112   5   4   3   1
 -0.0047751804951424   5   4   3   2
 -0.0037242649617045   5   4   3   3
 -0.1914693445648106   5   4   4   4
  0.0289114824386859   5   4   5   4
  0.6671458922857733   5   5   1   1
 -0.0125636523624949   5   5   2   1
  0.5119501396619727   5   5   2   2
 -0.0042069788654251   5   5   3   1
 -0.0011351946662647   5   5   3   2
  0.5570968877841598   5   5   3   3
  0.6670820517056256   5   5   4   4
 -0.0049101511754492   5   5   5   4
  0.5453708952309609   5   5   5   5
 -0.1496126041716504   6   1   4   1
  0.0275389835437205   6   1   4   2
  0.0050309140321424   6   1   4   3
  0.0148212030774324   6   1   5   1
 -0.0081345324407547   6   1   5   2
  0.0262451133724908   6   1   5   3
  0.0359352673660142   6   1   6   1
  0.2263328768911421   6   2   4   1
 -0.0049951236079988   6   2   4   2
  0.0109234140593717   6   2   4   3
 -0.0114483135614996   6   2   5   1
  0.0592044152182923   6   2   5   2
 -0.0568077383509881   6   2   5   3
  0.0059622326449602   6   2   6   1
  0.1066529233368917   6   2   6   2
  0.1933359540930018   6   3   4   1
 -0.0068262963436879   6   3   4   2
 -0.0034049140066983   6   3   4   3
 -0.0017083006189407   6   3   5   1
  0.0548145783500723   6   3   5   2
 -0.1243795457814028   6   3   5   3
 -0.0095429779339709   6   3   6   1
  0.0588860809240618   6   3   6   2
  0.0918150521036838   6   3   6   3
 -0.1312665816411893   6   4   1   1
  0.0280121733777282   6   4   2   1
  0.0221338766105658   6   4   2   2
  0.0061211971458461   6   4   3   1
  0.0167871524520647   6   4   3   2
 -0.0121185370102160   6   4   3   3
 -0.1310504913717805   6   4   4   4
  0.0142909409865665   6   4   5   4
 -0.0162235194758839   6   4   5   5
  0.0370448424370749   6   4   6   4
  0.0491703698854476   6   5   1   1
  0.0028764193373818   6   5   2   1
  0.0735318766655112   6   5   2   2
  0.0122298230533169   6   5   3   1
  0.0297220627129061   6   5   3   2
 -0.0274513191250810   6   5   3   3
  0.0492469370093787   6   5   4   4
 -0.0074621473214860   6   5   5   4
 -0.0198144148751655   6   5   5   5
  0.0137321929208240   6   5   6   4
  0.0479110757506323   6   5   6   5
  0.8958031734524865   6   6   1   1
 -0.0055163683069992   6   6   2   1
  0.7241338002497677   6   6   2   2
  0.0228800524865521   6   6   3   1
  0.0875399858842252   6   6   3   2
  0.5940888593132180   6   6   3   3
  0.8958777130120171   6   6   4   4
 -0.0209471183168603   6   6   5   4
  0.5594683591924107   6   6   5   5
  0.0135347808791042   6   6   6   4
  0.0456483258759893   6   6   6   5
  0.7600248799693613   6   6   6   6
  0.0097709748833106   7   1   7   1
  0.0166207301055129   7   2   7   1
  0.1049701474391988   7   2   7   2
 -0.0048610440258776   7   3   7   1
 -0.0138451157999688   7   3   7   2
  0.0280605436669250   7   3   7   3
  0.0092697615532044   7   4   7   4
  0.0112814228267857   7   5   7   4
  0.0508736780499034   7   5   7   5
  0.0085936714685005   7   6   7   4
  0.0238357275468742   7   6   7   5
  0.0353344578700485   7   6   7   6
  0.6879790991820591   7   7   1   1
 -0.0015138854787197   7   7   2   1
  0.6171757554300789   7   7   2   2
  0.0089481409770122   7   7   3   1
  0.0469597596925477   7   7   3   2
  0.5177651312657772   7   7   3   3
  0.6880230406589647   7   7   4   4
 -0.0077286781168024   7   7   5   4
  0.5100096683614990   7   7   5   5
  0.0064394622285741   7   7   6   4
  0.0416720354347969   7   7   6   5
  0.6199586920469597   7   7   6   6
  0.5880333086470342   7   7   7   7
  0.0113100667553043   8   1   7   4
  0.0134691762013119   8   1   7   5
  0.0098885596741132   8   1   7   6
  0.0138173617687868   8   1   8   1
  0.0114368254364902   8   2   7   4
  0.0429261294621768   8   2   7   5
  0.0340154289810738   8   2   7   6
  0.0134411058463952   8   2   8   1
  0.0442491710247008   8   2   8   2
 -0.0070266882443193   8   3   7   4
 -0.0391314957737384   8   3   7   5
 -0.0044157669629423   8   3   7   6
 -0.0086087414664229   8   3   8   1
 -0.0249968565540330   8   3   8   2
  0.0381695745614708   8   3   8   3
  0.0118877268311226   8   4   7   1
  0.0188479082677884   8   4   7   2
 -0.0062182045219602   8   4   7   3
  0.0144985042971126   8   4   8   4
  0.0156085856389524   8   5   7   1
  0.0741012792637425   8   5   7   2
 -0.0374298855213262   8   5   7   3
  0.0185326055928853   8   5   8   4
  0.0823649310381484   8   5   8   5
  0.0111174725828796   8   6   7   1
  0.0616291881187918   8   6   7   2
  0.0004407745315456   8   6   7   3
  0.0126087805050214   8   6   8   4
  0.0360523939814585   8   6   8   5
  0.0471636101726185   8   6   8   6
  0.2753528636446991   8   7   4   1
 -0.0088403176496378   8   7   4   2
 -0.0037820846363024   8   7   4   3
 -0.0027461984247438   8   7   5   1
  0.0966923498388754   8   7   5   2
 -0.1574223352959046   8   7   5   3
 -0.0099113090166468   8   7   6   1
  0.1021480421839164   8   7   6   2
  0.0921326985438565   8   7   6   3
  0.1876617882079626   8   7   8   7
  0.7276833321892046   8   8   1   1
 -0.0059488162203924   8   8   2   1
  0.5960361351405640   8   8   2   2
  0.0053577665070703   8   8   3   1
  0.0292283092006339   8   8   3   2
  0.5405366748609298   8   8   3   3
  0.7277125780395340   8   8   4   4
 -0.0077432527472017   8   8   5   4
  0.5358793068542036   8   8   5   5
 -0.0003361779911451   8   8   6   4
  0.0284813815485262   8   8   6   5
  0.6213509928768874   8   8   6   6
  0.5870791941704944   8   8   7   7
  0.6047495644207154   8   8   8   8
  0.0097709748833106   9   1   9   1
  0.0166207301055129   9   2   9   1
  0.1049701474391988   9   2   9   2
 -0.0048610440258776   9   3   9   1
 -0.0138451157999688   9   3   9   2
  0.0280605436669250   9   3   9   3
  0.0092697615532044   9   4   9   4
  0.0112814228267857   9   5   9   4
  0.0508736780499034   9   5   9   5
  0.0085936714685005   9   6   9   4
  0.0238357275468742   9   6   9   5
  0.0353344578700485   9   6   9   6
  0.0239905549573628   9   7   9   7
  0.0189799387287248   9   8   9   8
  0.6879790991820591   9   9   1   1
 -0.0015138854787197   9   9   2   1
  0.6171757554300789   9   9   2   2
  0.0089481409770122   9   9   3   1
  0.0469597596925477   9   9   3   2
  0.5177651312657772   9   9   3   3
  0.6880230406589647   9   9   4   4
 -0.0077286781168024   9   9   5   4
  0.5100096683614990   9   9   5   5
  0.0064394622285741   9   9   6   4
  0.0416720354347969   9   9   6   5
  0.6199586920469597   9   9   6   6
  0.5400521987323086   9   9   7   7
  0.5413239563182571   9   9   8   8
  0.5880333086470342   9   9   9   9
  0.0113100667553043  10   1   9   4
  0.0134691762013119  10   1   9   5
  0.0098885596741132  10   1   9   6
  0.0138173617687868  10   1  10   1
  0.0114368254364902  10   2   9   4
  0.0429261294621768  10   2   9   5
  0.0340154289810738  10   2   9   6
  0.0134411058463952  10   2  10   1
  0.0442491710247008  10   2  10   2
 -0.0070266882443193  10   3   9   4
 -0.0391314957737384  10   3   9   5
 -0.0044157669629423  10   3   9   6
 -0.0086087414664229  10   3  10   1
 -0.0249968565540330  10   3  10   2
  0.0381695745614708  10   3  10   3
  0.0118877268311226  10   4   9   1
  0.0188479082677884  10   4   9   2
 -0.0062182045219602  10   4   9   3
  0.0144985042971126  10   4  10   4
  0.0156085856389524  10   5   9   1
  0.0741012792637425  10   5   9   2
 -0.0374298855213262  10   5   9   3
  0.0185326055928853  10   5  10   4
  0.0823649310381484  10   5  10   5
  0.0111174725828796  10   6   9   1
  0.0616291881187918  10   6   9   2
  0.0004407745315456  10   6   9   3
  0.0126087805050214  10   6  10   4
  0.0360523939814585  10   6  10   5
  0.0471636101726185  10   6  10   6
  0.0189799387287248  10   7   9   8
  0.0189799387287248  10   7  10   7
  0.0228776189261184  10   8   9   7
  0.0250683630660331  10   8  10   8
  0.2753528636446991  10   9   4   1
 -0.0088403176496378  10   9   4   2
 -0.0037820846363024  10   9   4   3
 -0.0027461984247438  10   9   5   1
  0.0966923498388754  10   9   5   2
 -0.1574223352959046  10   9   5   3
 -0.0099113090166468  10   9   6   1
  0.1021480421839164  10   9   6   2
  0.0921326985438565  10   9   6   3
  0.1497019107505128  10   9   8   7
  0.1876617882079626  10   9  10   9
  0.7276833321892046  10  10   1   1
 -0.0059488162203924  10  10   2   1
  0.5960361351405640  10  10   2   2
  0.0053577665070703  10  10   3   1
  0.0292283092006339  10  10   3   2
  0.5405366748609298  10  10   3   3
  0.7277125780395340  10  10   4   4
 -0.0077432527472017  10  10   5   4
  0.5358793068542036  10  10   5   5
 -0.0003361779911451  10  10   6   4
  0.0284813815485262  10  10   6   5
  0.6213509928768874  10  10   6   6
  0.5413239563182572  10  10   7   7
  0.5546128382886489  10  10   8   8
  0.5870791941704944  10  10   9   9
  0.6047495644207154  10  10  10  10
  0.0000000000000000   0   0   0   0
  2.3068656644568879   1   1   1   1
 -0.1914404666492220   1   1   2   1
  0.7868840775592991   1   1   2   2
  0.0835840774236390   1   1   3   1
  0.0655012164970254   1   1   3   2
  0.6854056843595896   1   1   3   3
  2.3063511607366780   1   1   4   4
 -0.1915180730804983   1   1   5   4
  0.6671458922879668   1   1   5   5
 -0.1312665816456988   1   1   6   4
  0.0491703698836234   1   1   6   5
  0.8958031734505477   1   1   6   6
  0.6879790991812139   1   1   7   7
  0.7276833321893810   1   1   8   8
  0.6879790991812139   1   1   9   9
  0.7276833321893810   1   1  10  10
 -0.1914404665476660   2   1   1   1
  0.0309482307858456   2   1   2   1
  0.0020222979667182   2   1   2   2
 -0.0065652065007033   2   1   3   1
  0.0072351540833895   2   1   3   2
 -0.0089761290431696   2   1   3   3
 -0.1913035532535323   2   1   4   4
  0.0258190186345546   2   1   5   4
 -0.0125636523518783   2   1   5   5
  0.0280121733662945   2   1   6   4
  0.0028764193338579   2   1   6   5
 -0.0055163683007602   2   1   6   6
 -0.0015138854767778   2   1   7   7
 -0.0059488162132536   2   1   8   8
 -0.0015138854767778   2   1   9   9
 -0.0059488162132536   2   1  10  10
  0.7868840775352336   2   2   1   1
  0.0020222979747262   2   2   2   1
  0.7472181498758862   2   2   2   2
  0.0254970389523409   2   2   3   1
  0.1088646552301729   2   2   3   2
  0.5424367786342436   2   2   3   3
  0.7869699868954267   2   2   4   4
 -0.0182719141503936   2   2   5   4
  0.5119501396602968   2   2   5   5
  0.0221338766139952   2   2   6   4
  0.0735318766652585   2   2   6   5
  0.7241338002471294   2   2   6   6
  0.6171757554288595   2   2   7   7
  0.5960361351391276   2   2   8   8
  0.6171757554288595   2   2   9   9
  0.5960361351391276   2   2  10  10
  0.0835840775130107   3   1   1   1
 -0.0065652065146117   3   1   2   1
  0.0254970389604853   3   1   2   2
  0.0142698628261855   3   1   3   1
  0.0123610459231022   3   1   3   2
 -0.0027000280936944   3   1   3   3
  0.0836430879023538   3   1   4   4
 -0.0152157617074220   3   1   5   4
 -0.0042069788590303   3   1   5   5
  0.0061211971380252   3   1   6   4
  0.0122298230558296   3   1   6   5
  0.0228800524982608   3   1   6   6
  0.0089481409837993   3   1   7   7
  0.0053577665160026   3   1   8   8
  0.0089481409837993   3   1   9   9
  0.0053577665160026   3   1  10  10
  0.0655012164949818   3   2   1   1
  0.0072351540909762   3   2   2   1
  0.1088646552343660   3   2   2   2
  0.0123610459245126   3   2   3   1
  0.0516460777721365   3   2   3   2
  0.0161748568467290   3   2   3   3
  0.0655591200034233   3   2   4   4
 -0.0047751804948154   3   2   5   4
 -0.0011351946677741   3   2   5   5
  0.0167871524544917   3   2   6   4
  0.0297220627149936   3   2   6   5
  0.0875399858868554   3   2   6   6
  0.0469597596941386   3   2   7   7
  0.0292283092012473   3   2   8   8
  0.0469597596941386   3   2   9   9
  0.0292283092012473   3   2  10  10
  0.6854056843692773   3   3   1   1
 -0.0089761290525409   3   3   2   1
  0.5424367786411507   3   3   2   2
 -0.0027000280964549   3   3   3   1
  0.0161748568504627   3   3   3   2
  0.5849179963842421   3   3   3   3
  0.6853423268630888   3   3   4   4
 -0.0037242649635923   3   3   5   4
  0.5570968877836421   3   3   5   5
 -0.0121185370091354   3   3   6   4
 -0.0274513191230045   3   3   6   5
  0.5940888593177939   3   3   6   6
  0.5177651312678414   3   3   7   7
  0.5405366748621898   3   3   8   8
  0.5177651312678414   3   3   9   9
  0.5405366748621898   3   3  10  10
  1.8249339818460220   4   1   4   1
 -0.1983666215870339   4   1   4   2
  0.0685565933738687   4   1   4   3
 -0.1846139503361221   4   1   5   1
  0.1721198438098705   4   1   5   2
 -0.2521981416271357   4   1   5   3
 -0.1496126041820193   4   1   6   1
  0.2263328768896421   4   1   6   2
  0.1933359540958174   4   1   6   3
  0.2753528636477677   4   1   8   7
  0.2753528636477677   4   1  10   9
 -0.1983666215087677   4   2   4   1
  0.0306870405661525   4   2   4   2
 -0.0070242229894172   4   2   4   3
  0.0260148600979414   4   2   5   1
 -0.0083001343206658   4   2   5   2
  0.0138780026689115   4   2   5   3
  0.0275389835323028   4   2   6   1
 -0.0049951236173456   4   2   6   2
 -0.0068262963443810   4   2   6   3
 -0.0088403176549447   4   2   8   7
 -0.0088403176549447   4   2  10   9
  0.0685565934397629   4   3   4   1
 -0.0070242230014202   4   3   4   2
  0.0133156519865907   4   3   4   3
 -0.0147837545133616   4   3   5   1
 -0.0007778777690141   4   3   5   2
  0.0148721316543055   4   3   5   3
  0.0050309140254888   4   3   6   1
  0.0109234140600976   4   3   6   2
 -0.0034049140144889   4   3   6   3
 -0.0037820846389843   4   3   8   7
 -0.0037820846389843   4   3  10   9
  2.3063511607838310   4   4   1   1
 -0.1913035533647625   4   4   2   1
  0.7869699869132747   4   4   2   2
  0.0836430878114193   4   4   3   1
  0.0655591200004889   4   4   3   2
  0.6853423268573686   4   4   3   3
  2.3058381064177529   4   4   4   4
 -0.1914693445718862   4   4   5   4
  0.6670820517129964   4   4   5   5
 -0.1310504913886844   4   4   6   4
  0.0492469370034145   4   4   6   5
  0.8958777130064604   4   4   6   6
  0.6880230406562678   4   4   7   7
  0.7277125780398676   4   4   8   8
  0.6880230406562678   4   4   9   9
  0.7277125780398676   4   4  10  10
 -0.1846139501431966   5   1   4   1
  0.0260148600749421   5   1   4   2
 -0.0147837545087342   5   1   4   3
  0.0287155848116160   5   1   5   1
 -0.0048287136329993   5   1   5   2
 -0.0023235595701297   5   1   5   3
  0.0148212030353736   5   1   6   1
 -0.0114483135660130   5   1   6   2
 -0.0017083006026296   5   1   6   3
 -0.0027461984079547   5   1   8   7
 -0.0027461984079547   5   1  10   9
  0.1721198435477594   5   2   4   1
 -0.0083001343109803   5   2   4   2
 -0.0007778777810553   5   2   4   3
 -0.0048287136307748   5   2   5   1
  0.0564762675860796   5   2   5   2
 -0.0930856358401207   5   2   5   3
 -0.0081345324462287   5   2   6   1
  0.0592044151014421   5   2   6   2
  0.0548145782868250   5   2   6   3
  0.0966923497285819   5   2   8   7
  0.0966923497285819   5   2  10   9
 -0.2521981418390603   5   3   4   1
  0.0138780026811550   5   3   4   2
  0.0148721316467909   5   3   4   3
 -0.0023235595283059   5   3   5   1
 -0.0930856359594593   5   3   5   2
  0.2235584885927260   5   3   5   3
  0.0262451133837674   5   3   6   1
 -0.0568077384152852   5   3   6   2
 -0.1243795458813555   5   3   6   3
 -0.1574223353958175   5   3   8   7
 -0.1574223353958175   5   3  10   9
 -0.1915180729268076   5   4   1   1
  0.0258190186124422   5   4   2   1
 -0.0182719141913777   5   4   2   2
 -0.0152157617053982   5   4   3   1
 -0.0047751805193550   5   4   3   2
 -0.0037242649407945   5   4   3   3
 -0.1914693444130890   5   4   4   4
  0.0289114824225154   5   4   5   4
 -0.0049101511518352   5   4   5   5
  0.0142909409416249   5   4   6   4
 -0.0074621473463966   5   4   6   5
 -0.0209471183378803   5   4   6   6
 -0.0077286781310518   5   4   7   7
 -0.0077432527509285   5   4   8   8
 -0.0077286781310518   5   4   9   9
 -0.0077432527509285   5   4  10  10
  0.6671458921736937   5   5   1   1
 -0.0125636523681739   5   5   2   1
  0.5119501395007189   5   5   2   2
 -0.0042069788925335   5   5   3   1
 -0.0011351947313829   5   5   3   2
  0.5570968878441105   5   5   3   3
  0.6670820515933797   5   5   4   4
 -0.0049101511584435   5   5   5   4
  0.5453708952741807   5   5   5   5
 -0.0162235195055788   5   5   6   4
 -0.0198144149801285   5   5   6   5
  0.5594683590920763   5   5   6   6
  0.5100096682701757   5   5   7   7
  0.5358793067917291   5   5   8   8
  0.5100096682701757   5   5   9   9
  0.5358793067917291   5   5  10  10
 -0.1496126039921554   6   1   4   1
  0.0275389835285546   6   1   4   2
  0.0050309140307646   6   1   4   3
  0.0148212030684315   6   1   5   1
 -0.0081345324147727   6   1   5   2
  0.0262451133247001   6   1   5   3
  0.0359352673489262   6   1   6   1
  0.0059622326723745   6   1   6   2
 -0.0095429779019810   6   1   6   3
 -0.0099113089704008   6   1   8   7
 -0.0099113089704008   6   1  10   9
  0.2263328770227954   6   2   4   1