 &FCI NORB=  10,NELEC=14,MS2=0,
  ORBSYM=1,1,1,5,5,5,2,6,3,7
  ISYM=1,
 &END
   2.3068656644476713e+00    1    1    1    1
  -1.9144046659896691e-01    1    1    2    1
   7.8688407760323387e-01    1    1    2    2
   8.3584077502928747e-02    1    1    3    1
   6.5501216463151379e-02    1    1    3    2
   6.8540568431376370e-01    1    1    3    3
   2.3063511607353830e+00    1    1    4    4
  -1.9151807289171283e-01    1    1    5    4
   6.6714589215015219e-01    1    1    5    5
  -1.3126658185501475e-01    1    1    6    4
   4.9170369567693509e-02    1    1    6    5
   8.9580317357691952e-01    1    1    6    6
   6.8797909918195954e-01    1    1    7    7
   7.2768333218926973e-01    1    1    8    8
   6.8797909918195954e-01    1    1    9    9
   7.2768333218926973e-01    1    1   10   10
  -1.9144046659896705e-01    2    1    1    1
   3.0948230789814589e-02    2    1    2    1
   2.0222979850978901e-03    2    1    2    2
  -6.5652065104523944e-03    2    1    3    1
   7.2351540891893301e-03    2    1    3    2
  -8.9761290563943399e-03    2    1    3    3
  -1.9130355330633150e-01    2    1    4    4
   2.5819018599108644e-02    2    1    5    4
  -1.2563652369500187e-02    2    1    5    5
   2.8012173406651249e-02    2    1    6    4
   2.8764193326232222e-03    2    1    6    5
  -5.5163682878682056e-03    2    1    6    6
  -1.5138854750740539e-03    2    1    7    7
  -5.9488162171166779e-03    2    1    8    8
  -1.5138854750740539e-03    2    1    9    9
  -5.9488162171166779e-03    2    1   10   10
   7.8688407760323364e-01    2    2    1    1
   2.0222979850979617e-03    2    2    2    1
   7.4721815003041858e-01    2    2    2    2
   2.5497038961801204e-02    2    2    3    1
   1.0886465519530966e-01    2    2    3    2
   5.4243677857111638e-01    2    2    3    3
   7.8696998696265996e-01    2    2    4    4
  -1.8271914187329458e-02    2    2    5    4
   5.1195013946110390e-01    2    2    5    5
   2.2133876599818757e-02    2    2    6    4
   7.3531876398053489e-02    2    2    6    5
   7.2413380051188436e-01    2    2    6    6
   6.1717575546290115e-01    2    2    7    7
   5.9603613516086951e-01    2    2    8    8
   6.1717575546290115e-01    2    2    9    9
   5.9603613516086951e-01    2    2   10   10
   8.3584077502928872e-02    3    1    1    1
  -6.5652065104524144e-03    3    1    2    1
   2.5497038961801249e-02    3    1    2    2
   1.4269862827640529e-02    3    1    3    1
   1.2361045911095861e-02    3    1    3    2
  -2.7000281031183864e-03    3    1    3    3
   8.3643087892100759e-02    3    1    4    4
  -1.5215761715542144e-02    3    1    5    4
  -4.2069788935632825e-03    3    1    5    5
   6.1211971162323693e-03    3    1    6    4
   1.2229823015313706e-02    3    1    6    5
   2.2880052523300092e-02    3    1    6    6
   8.9481409782630160e-03    3    1    7    7
   5.3577665102208837e-03    3    1    8    8
   8.9481409782630160e-03    3    1    9    9
   5.3577665102208837e-03    3    1   10   10
   6.5501216463151449e-02    3    2    1    1
   7.2351540891892963e-03    3    2    2    1
   1.0886465519530966e-01    3    2    2    2
   1.2361045911095886e-02    3    2    3    1
   5.1646077705430615e-02    3    2    3    2
   1.6174856826708019e-02    3    2    3    3
   6.5559119970839103e-02    3    2    4    4
  -4.7751805133617398e-03    3    2    5    4
  -1.1351947313280922e-03    3    2    5    5
   1.6787152432957485e-02    3    2    6    4
   2.9722062557397490e-02    3    2    6    5
   8.7539985920734670e-02    3    2    6    6
   4.6959759657865655e-02    3    2    7    7
   2.9228309181236901e-02    3    2    8    8
   4.6959759657865655e-02    3    2    9    9
   2.9228309181236901e-02    3    2   10   10
   6.8540568431376403e-01    3    3    1    1
  -8.9761290563943590e-03    3    3    2    1
   5.4243677857111627e-01    3    3    2    2
  -2.7000281031183920e-03    3    3    3    1
   1.6174856826707915e-02    3    3    3    2
   5.8491799636148922e-01    3    3    3    3
   6.8534232680812446e-01    3    3    4    4
  -3.7242649403742556e-03    3    3    5    4
   5.5709688785932487e-01    3    3    5    5
  -1.2118537023688730e-02    3    3    6    4
  -2.7451319196083884e-02    3    3    6    5
   5.9408885917701748e-01    3    3    6    6
   5.1776513123305368e-01    3    3    7    7
   5.4053667484055878e-01    3    3    8    8
   5.1776513123305368e-01    3    3    9    9
   5.4053667484055878e-01    3    3   10   10
   1.8249339818173060e+00    4    1    4    1
  -1.9836662154253773e-01    4    1    4    2
   6.8556593453626968e-02    4    1    4    3
  -1.8461395011740514e-01    4    1    5    1
   1.7211984340888795e-01    4    1    5    2
  -2.5219814194409362e-01    4    1    5    3
  -1.4961260436709942e-01    4    1    6    1
   2.2633287718368011e-01    4    1    6    2
   1.9333595367324938e-01    4    1    6    3
   2.7535286364518663e-01    4    1    8    7
   2.7535286364518663e-01    4    1   10    9
  -1.9836662154253767e-01    4    2    4    1
   3.0687040568922748e-02    4    2    4    2
  -7.0242229984530877e-03    4    2    4    3
   2.6014860061924234e-02    4    2    5    1
  -8.3001343067636221e-03    4    2    5    2
   1.3878002689269682e-02    4    2    5    3
   2.7538983572271327e-02    4    2    6    1
  -4.9951236176295185e-03    4    2    6    2
  -6.8262963242781338e-03    4    2    6    3
  -8.8403176516264458e-03    4    2    8    7
  -8.8403176516264458e-03    4    2   10    9
   6.8556593453627010e-02    4    3    4    1
  -7.0242229984531042e-03    4    3    4    2
   1.3315651988051239e-02    4    3    4    3
  -1.4783754520133370e-02    4    3    5    1
  -7.7787777469663871e-04    4    3    5    2
   1.4872131644520488e-02    4    3    5    3
   5.0309140036307442e-03    4    3    6    1
   1.0923414058844855e-02    4    3    6    2
  -3.4049139882242601e-03    4    3    6    3
  -3.7820846331233092e-03    4    3    8    7
  -3.7820846331233092e-03    4    3   10    9
   2.3063511607353835e+00    4    4    1    1
  -1.9130355330633142e-01    4    4    2    1
   7.8696998696266018e-01    4    4    2    2
   8.3643087892100704e-02    4    4    3    1
   6.5559119970838992e-02    4    4    3    2
   6.8534232680812424e-01    4    4    3    3
   2.3058381063772777e+00    4    4    4    4
  -1.9146934437897351e-01    4    4    5    4
   6.6708205157057288e-01    4    4    5    5
  -1.3105049158744250e-01    4    4    6    4
   4.9246936690880976e-02    4    4    6    5
   8.9587771313626319e-01    4    4    6    6
   6.8802304065863817e-01    4    4    7    7
   7.2771257803966061e-01    4    4    8    8
   6.8802304065863817e-01    4    4    9    9
   7.2771257803966061e-01    4    4   10   10
  -1.8461395011740531e-01    5    1    4    1
   2.6014860061924251e-02    5    1    4    2
  -1.4783754520133347e-02    5    1    4    3
   2.8715584787002410e-02    5    1    5    1
  -4.8287136181137825e-03    5    1    5    2
  -2.3235595653673335e-03    5    1    5    3
   1.4821203060517473e-02    5    1    6    1
  -1.1448313574458064e-02    5    1    6    2
  -1.7083006039457986e-03    5    1    6    3
  -2.7461984094338870e-03    5    1    8    7
  -2.7461984094338870e-03    5    1   10    9
   1.7211984340888795e-01    5    2    4    1
  -8.3001343067636221e-03    5    2    4    2
  -7.7787777469663730e-04    5    2    4    3
  -4.8287136181137816e-03    5    2    5    1
   5.6476267424232063e-02    5    2    5    2
  -9.3085635838650552e-02    5    2    5    3
  -8.1345324412436248e-03    5    2    6    1
   5.9204415148968959e-02    5    2    6    2
   5.4814578079509416e-02    5    2    6    3
   9.6692349645122300e-02    5    2    8    7
   9.6692349645122300e-02    5    2   10    9
  -2.5219814194409368e-01    5    3    4    1
   1.3878002689269715e-02    5    3    4    2
   1.4872131644520453e-02    5    3    4    3
  -2.3235595653673352e-03    5    3    5    1
  -9.3085635838650510e-02    5    3    5    2
   2.2355848886046381e-01    5    3    5    3
   2.6245113378505172e-02    5    3    6    1
  -5.6807738620622619e-02    5    3    6    2
  -1.2437954560131048e-01    5    3    6    3
  -1.5742233545477560e-01    5    3    8    7
  -1.5742233545477560e-01    5    3   10    9
  -1.9151807289171299e-01    5    4    1    1
   2.5819018599108668e-02    5    4    2    1
  -1.8271914187329548e-02    5    4    2    2
  -1.5215761715542132e-02    5    4    3    1
  -4.7751805133617008e-03    5    4    3    2
  -3.7242649403742690e-03    5    4    3    3
  -1.9146934437897367e-01    5    4    4    4
   2.8911482397896093e-02    5    4    5    4
  -4.9101511313210449e-03    5    4    5    5
   1.4290940968654377e-02    5    4    6    4
  -7.4621473184326168e-03    5    4    6    5
  -2.0947118353775249e-02    5    4    6    6
  -7.7286781257322572e-03    5    4    7    7
  -7.7432527464054816e-03    5    4    8    8
  -7.7286781257322572e-03    5    4    9    9
  -7.7432527464054816e-03    5    4   10   10
   6.6714589215015230e-01    5    5    1    1
  -1.2563652369500215e-02    5    5    2    1
   5.1195013946110401e-01    5    5    2    2
  -4.2069788935632747e-03    5    5    3    1
  -1.1351947313279845e-03    5    5    3    2
   5.5709688785932476e-01    5    5    3    3
   6.6708205157057310e-01    5    5    4    4
  -4.9101511313210718e-03    5    5    5    4
   5.4537089533835648e-01    5    5    5    5
  -1.6223519515885170e-02    5    5    6    4
  -1.9814415024664741e-02    5    5    6    5
   5.5946835901342051e-01    5    5    6    6
   5.1000966824832417e-01    5    5    7    7
   5.3587930677681961e-01    5    5    8    8
   5.1000966824832417e-01    5    5    9    9
   5.3587930677681961e-01    5    5   10   10
  -1.4961260436709975e-01    6    1    4    1
   2.7538983572271393e-02    6    1    4    2
   5.0309140036307346e-03    6    1    4    3
   1.4821203060517546e-02    6    1    5    1
  -8.1345324412436543e-03    6    1    5    2
   2.6245113378505183e-02    6    1    5    3
   3.5935267396232672e-02    6    1    6    1
   5.9622326222116898e-03    6    1    6    2
  -9.5429778972953398e-03    6    1    6    3
  -9.9113090131388686e-03    6    1    8    7
  -9.9113090131388686e-03    6    1   10    9
   2.2633287718368014e-01    6    2    4    1
  -4.9951236176295401e-03    6    2    4    2
   1.0923414058844902e-02    6    2    4    3
  -1.1448313574458059e-02    6    2    5    1
   5.9204415148968799e-02    6    2    5    2
  -5.6807738620622522e-02    6    2    5    3
   5.9622326222116872e-03    6    2    6    1
   1.0665292353855325e-01    6    2    6    2
   5.8886080916231778e-02    6    2    6    3
   1.0214804234691431e-01    6    2    8    7
   1.0214804234691431e-01    6    2   10    9
   1.9333595367324943e-01    6    3    4    1
  -6.8262963242782127e-03    6    3    4    2
  -3.4049139882241864e-03    6    3    4    3
  -1.7083006039458476e-03    6    3    5    1
   5.4814578079509194e-02    6    3    5    2
  -1.2437954560131027e-01    6    3    5    3
  -9.5429778972955029e-03    6    3    6    1
   5.8886080916231008e-02    6    3    6    2
   9.1815051724618971e-02    6    3    6    3
   9.2132698294343451e-02    6    3    8    7
   9.2132698294343451e-02    6    3   10    9
  -1.3126658185501508e-01    6    4    1    1
   2.8012173406651308e-02    6    4    2    1
   2.2133876599818629e-02    6    4    2    2
   6.1211971162323641e-03    6    4    3    1
   1.6787152432957541e-02    6    4    3    2
  -1.2118537023688732e-02    6    4    3    3
  -1.3105049158744275e-01    6    4    4    4
   1.4290940968654429e-02    6    4    5    4
  -1.6223519515885212e-02    6    4    5    5
   3.7044842466006811e-02    6    4    6    4
   1.3732192870852216e-02    6    4    6    5
   1.3534780894652163e-02    6    4    6    6
   6.4394622200818563e-03    6    4    7    7
  -3.3617799828896945e-04    6    4    8    8
   6.4394622200818563e-03    6    4    9    9
  -3.3617799828896945e-04    6    4   10   10
   4.9170369567694064e-02    6    5    1    1
   2.8764193326231064e-03    6    5    2    1
   7.3531876398053544e-02    6    5    2    2
   1.2229823015313692e-02    6    5    3    1
   2.9722062557397514e-02    6    5    3    2
  -2.7451319196084015e-02    6    5    3    3
   4.9246936690881371e-02    6    5    4    4
  -7.4621473184327122e-03    6    5    5    4
  -1.9814415024664734e-02    6    5    5    5
   1.3732192870852226e-02    6    5    6    4
   4.7911075572694757e-02    6    5    6    5
   4.5648325734206470e-02    6    5    6    6
   4.1672035285416735e-02    6    5    7    7
   2.8481381432308158e-02    6    5    8    8
   4.1672035285416735e-02    6    5    9    9
   2.8481381432308158e-02    6    5   10   10
   8.9580317357692041e-01    6    6    1    1
  -5.5163682878684251e-03    6    6    2    1
   7.2413380051188447e-01    6    6    2    2
   2.2880052523300155e-02    6    6    3    1
   8.7539985920734503e-02    6    6    3    2
   5.9408885917701681e-01    6    6    3    3
   8.9587771313626441e-01    6    6    4    4
  -2.0947118353775433e-02    6    6    5    4
   5.5946835901342118e-01    6    6    5    5
   1.3534780894651930e-02    6    6    6    4
   4.5648325734207552e-02    6    6    6    5
   7.6002488021889136e-01    6    6    6    6
   6.1995869216046207e-01    6    6    7    7
   6.2135099295414575e-01    6    6    8    8
   6.1995869216046207e-01    6    6    9    9
   6.2135099295414575e-01    6    6   10   10
   9.7709748829747037e-03    7    1    7    1
   1.6620730102743231e-02    7    1    7    2
  -4.8610440316616023e-03    7    1    7    3
   1.1887726830461107e-02    7    1    8    4
   1.5608585623321207e-02    7    1    8    5
   1.1117472603688712e-02    7    1    8    6
   1.6620730102743231e-02    7    2    7    1
   1.0497014742992096e-01    7    2    7    2
  -1.3845115826810273e-02    7    2    7    3
   1.8847908263201950e-02    7    2    8    4
   7.4101279167355288e-02    7    2    8    5
   6.1629188220244602e-02    7    2    8    6
  -4.8610440316616014e-03    7    3    7    1
  -1.3845115826810287e-02    7    3    7    2
   2.8060543676538693e-02    7    3    7    3
  -6.2182045282264510e-03    7    3    8    4
  -3.7429885547772761e-02    7    3    8    5
   4.4077445908008716e-04    7    3    8    6
   9.2697615524783786e-03    7    4    7    4
   1.1281422814050568e-02    7    4    7    5
   8.5936714827745970e-03    7    4    7    6
   1.1310066754795844e-02    7    4    8    1
   1.1436825432746069e-02    7    4    8    2
  -7.0266882478233709e-03    7    4    8    3
   1.1281422814050562e-02    7    5    7    4
   5.0873677985380429e-02    7    5    7    5
   2.3835727568390645e-02    7    5    7    6
   1.3469176187741709e-02    7    5    8    1
   4.2926129402580948e-02    7    5    8    2
  -3.9131495782710607e-02    7    5    8    3
   8.5936714827745900e-03    7    6    7    4
   2.3835727568390700e-02    7    6    7    5
   3.5334457935297589e-02    7    6    7    6
   9.8885596923783958e-03    7    6    8    1
   3.4015429038269963e-02    7    6    8    2
  -4.4157670280914000e-03    7    6    8    3
   6.8797909918195965e-01    7    7    1    1
  -1.5138854750740697e-03    7    7    2    1
   6.1717575546290127e-01    7    7    2    2
   8.9481409782630264e-03    7    7    3    1
   4.6959759657865557e-02    7    7    3    2
   5.1776513123305368e-01    7    7    3    3
   6.8802304065863829e-01    7    7    4    4
  -7.7286781257322945e-03    7    7    5    4
   5.1000966824832394e-01    7    7    5    5
   6.4394622200818251e-03    7    7    6    4
   4.1672035285416562e-02    7    7    6    5
   6.1995869216046140e-01    7    7    6    6
   5.8803330864703418e-01    7    7    7    7
   5.8707919417049426e-01    7    7    8    8
   5.4005219873230859e-01    7    7    9    9
   5.4132395631825714e-01    7    7   10   10
   1.1310066754795848e-02    8    1    7    4
   1.3469176187741714e-02    8    1    7    5
   9.8885596923784045e-03    8    1    7    6
   1.3817361768586634e-02    8    1    8    1
   1.3441105843198778e-02    8    1    8    2
  -8.6087414710031476e-03    8    1    8    3
   1.1436825432746064e-02    8    2    7    4
   4.2926129402580955e-02    8    2    7    5
   3.4015429038269956e-02    8    2    7    6
   1.3441105843198771e-02    8    2    8    1
   4.4249171007541097e-02    8    2    8    2
  -2.4996856556163578e-02    8    2    8    3
  -7.0266882478233700e-03    8    3    7    4
  -3.9131495782710635e-02    8    3    7    5
  -4.4157670280914009e-03    8    3    7    6
  -8.6087414710031441e-03    8    3    8    1
  -2.4996856556163592e-02    8    3    8    2
   3.8169574578830572e-02    8    3    8    3
   1.1887726830461107e-02    8    4    7    1
   1.8847908263201950e-02    8    4    7    2
  -6.2182045282264510e-03    8    4    7    3
   1.4498504296020728e-02    8    4    8    4
   1.8532605574118000e-02    8    4    8    5
   1.2608780528830341e-02    8    4    8    6
   1.5608585623321203e-02    8    5    7    1
   7.4101279167355275e-02    8    5    7    2
  -3.7429885547772726e-02    8    5    7    3
   1.8532605574118007e-02    8    5    8    4
   8.2364930940574899e-02    8    5    8    5
   3.6052394029919450e-02    8    5    8    6
   1.1117472603688701e-02    8    6    7    1
   6.1629188220244595e-02    8    6    7    2
   4.4077445908011513e-04    8    6    7    3
   1.2608780528830344e-02    8    6    8    4
   3.6052394029919457e-02    8    6    8    5
   4.7163610271284039e-02    8    6    8    6
   2.7535286364518657e-01    8    7    4    1
  -8.8403176516264632e-03    8    7    4    2
  -3.7820846331233044e-03    8    7    4    3
  -2.7461984094338918e-03    8    7    5    1
   9.6692349645122147e-02    8    7    5    2
  -1.5742233545477555e-01    8    7    5    3
  -9.9113090131388356e-03    8    7    6    1
   1.0214804234691412e-01    8    7    6    2
   9.2132698294343895e-02    8    7    6    3
   1.8766178820796264e-01    8    7    8    7
   1.4970191075051284e-01    8    7   10    9
   7.2768333218926962e-01    8    8    1    1
  -5.9488162171166797e-03    8    8    2    1
   5.9603613516086940e-01    8    8    2    2
   5.3577665102208967e-03    8    8    3    1
   2.9228309181236870e-02    8    8    3    2
   5.4053667484055890e-01    8    8    3    3
   7.2771257803966050e-01    8    8    4    4
  -7.7432527464055051e-03    8    8    5    4
   5.3587930677681928e-01    8    8    5    5
  -3.3617799828904041e-04    8    8    6    4
   2.8481381432307731e-02    8    8    6    5
   6.2135099295414542e-01    8    8    6    6
   5.8707919417049437e-01    8    8    7    7
   6.0474956442071537e-01    8    8    8    8
   5.4132395631825725e-01    8    8    9    9
   5.5461283828864893e-01    8    8   10   10
   9.7709748829747037e-03    9    1    9    1
   1.6620730102743231e-02    9    1    9    2
  -4.8610440316616023e-03    9    1    9    3
   1.1887726830461107e-02    9    1   10    4
   1.5608585623321207e-02    9    1   10    5
   1.1117472603688712e-02    9    1   10    6
   1.6620730102743231e-02    9    2    9    1
   1.0497014742992096e-01    9    2    9    2
  -1.3845115826810273e-02    9    2    9    3
   1.8847908263201950e-02    9    2   10    4
   7.4101279167355288e-02    9    2   10    5
   6.1629188220244602e-02    9    2   10    6
  -4.8610440316616014e-03    9    3    9    1
  -1.3845115826810287e-02    9    3    9    2
   2.8060543676538693e-02    9    3    9    3
  -6.2182045282264510e-03    9    3   10    4
  -3.7429885547772761e-02    9    3   10    5
   4.4077445908008716e-04    9    3   10    6
   9.2697615524783786e-03    9    4    9    4
   1.1281422814050568e-02    9    4    9    5
   8.5936714827745970e-03    9    4    9    6
   1.1310066754795844e-02    9    4   10    1
   1.1436825432746069e-02    9    4   10    2
  -7.0266882478233709e-03    9    4   10    3
   1.1281422814050562e-02    9    5    9    4
   5.0873677985380429e-02    9    5    9    5
   2.3835727568390645e-02    9    5    9    6
   1.3469176187741709e-02    9    5   10    1
   4.2926129402580948e-02    9    5   10    2
  -3.9131495782710607e-02    9    5   10    3
   8.5936714827745900e-03    9    6    9    4
   2.3835727568390700e-02    9    6    9    5
   3.5334457935297589e-02    9    6    9    6
   9.8885596923783958e-03    9    6   10    1
   3.4015429038269963e-02    9    6   10    2
  -4.4157670280914000e-03    9    6   10    3
   2.3990554957362752e-02    9    7    9    7
   2.2877618926118393e-02    9    7   10    8
   1.8979938728724780e-02    9    8    9    8
   1.8979938728724780e-02    9    8   10    7
   6.8797909918195965e-01    9    9    1    1
  -1.5138854750740697e-03    9    9    2    1
   6.1717575546290127e-01    9    9    2    2
   8.9481409782630264e-03    9    9    3    1
   4.6959759657865557e-02    9    9    3    2
   5.1776513123305368e-01    9    9    3    3
   6.8802304065863829e-01    9    9    4    4
  -7.7286781257322945e-03    9    9    5    4
   5.1000966824832394e-01    9    9    5    5
   6.4394622200818251e-03    9    9    6    4
   4.1672035285416562e-02    9    9    6    5
   6.1995869216046140e-01    9    9    6    6
   5.4005219873230859e-01    9    9    7    7
   5.4132395631825714e-01    9    9    8    8
   5.8803330864703418e-01    9    9    9    9
   5.8707919417049426e-01    9    9   10   10
   1.1310066754795848e-02   10    1    9    4
   1.3469176187741714e-02   10    1    9    5
   9.8885596923784045e-03   10    1    9    6
   1.3817361768586634e-02   10    1   10    1
   1.3441105843198778e-02   10    1   10    2
  -8.6087414710031476e-03   10    1   10    3
   1.1436825432746064e-02   10    2    9    4
   4.2926129402580955e-02   10    2    9    5
   3.4015429038269956e-02   10    2    9    6
   1.3441105843198771e-02   10    2   10    1
   4.4249171007541097e-02   10    2   10    2
  -2.4996856556163578e-02   10    2   10    3
  -7.0266882478233700e-03   10    3    9    4
  -3.9131495782710635e-02   10    3    9    5
  -4.4157670280914009e-03   10    3    9    6
  -8.6087414710031441e-03   10    3   10    1
  -2.4996856556163592e-02   10    3   10    2
   3.8169574578830572e-02   10    3   10    3
   1.1887726830461107e-02   10    4    9    1
   1.8847908263201950e-02   10    4    9    2
  -6.2182045282264510e-03   10    4    9    3
   1.4498504296020728e-02   10    4   10    4
   1.8532605574118000e-02   10    4   10    5
   1.2608780528830341e-02   10    4   10    6
   1.5608585623321203e-02   10    5    9    1
   7.4101279167355275e-02   10    5    9    2
  -3.7429885547772726e-02   10    5    9    3
   1.8532605574118007e-02   10    5   10    4
   8.2364930940574899e-02   10    5   10    5
   3.6052394029919450e-02   10    5   10    6
   1.1117472603688701e-02   10    6    9    1
   6.1629188220244595e-02   10    6    9    2
   4.4077445908011513e-04   10    6    9    3
   1.2608780528830344e-02   10    6   10    4
   3.6052394029919457e-02   10    6   10    5
   4.7163610271284039e-02   10    6   10    6
   1.8979938728724784e-02   10    7    9    8
   1.8979938728724780e-02   10    7   10    7
   2.2877618926118393e-02   10    8    9    7
   2.5068363066033082e-02   10    8   10    8
   2.7535286364518657e-01   10    9    4    1
  -8.8403176516264632e-03   10    9    4    2
  -3.7820846331233044e-03   10    9    4    3
  -2.7461984094338918e-03   10    9    5    1
   9.6692349645122147e-02   10    9    5    2
  -1.5742233545477555e-01   10    9    5    3
  -9.9113090131388356e-03   10    9    6    1
   1.0214804234691412e-01   10    9    6    2
   9.2132698294343895e-02   10    9    6    3
   1.4970191075051284e-01   10    9    8    7
   1.8766178820796264e-01   10    9   10    9
   7.2768333218926962e-01   10   10    1    1
  -5.9488162171166797e-03   10   10    2    1
   5.9603613516086940e-01   10   10    2    2
   5.3577665102208967e-03   10   10    3    1
   2.9228309181236870e-02   10   10    3    2
   5.4053667484055890e-01   10   10    3    3
   7.2771257803966050e-01   10   10    4    4
  -7.7432527464055051e-03   10   10    5    4
   5.3587930677681928e-01   10   10    5    5
  -3.3617799828904041e-04   10   10    6    4
   2.8481381432307731e-02   10   10    6    5
   6.2135099295414542e-01   10   10    6    6
   5.4132395631825725e-01   10   10    7    7
   5.5461283828864893e-01   10   10    8    8
   5.8707919417049437e-01   10   10    9    9
   6.0474956442071537e-01   10   10   10   10
  -2.7549154885563897e+01    1    1  0  0
   4.6356755093459279e-01    2    1  0  0
  -9.5331426466818492e+00    2    2  0  0
  -2.6279680931938265e-01    3    1  0  0
  -7.0709413105977081e-01    3    2  0  0
  -7.7764865279832280e+00    3    3  0  0
  -2.7548344964780743e+01    4    4  0  0
   4.9884360490049856e-01    5    4  0  0
  -7.6753825049340243e+00    5    5  0  0
   2.3195471997087819e-01    6    4  0  0
  -4.2426098432518911e-01    6    5  0  0
  -8.3109980205776157e+00    6    6  0  0
  -8.0544994260698743e+00    7    7  0  0
  -7.8325745996667289e+00    8    8  0  0
  -8.0544994260698743e+00    9    9  0  0
  -7.8325745996667289e+00   10   10  0  0
   2.3572439395527272e+01  0  0  0  0
